 Q-Chem 5.4, Q-Chem, Inc., Pleasanton, CA (2021)
 Q-Chem 5.4.2 for Intel X86 EM64T Linux

User input:
--------------------------------------------------------------
$molecule
0 1
C	1.137420388	0.029576564	1.187580049
C	0.087946577	-0.688858971	1.672436403
N	-0.980165494	-0.906520181	0.806536632
C	-1.039910819	-0.432198751	-0.534023956
N	0.004311676	0.383078475	-0.873576702
C	1.089210364	0.681752536	-0.100527416
O	-1.985295947	-0.703314527	-1.287048326
O	1.874601536	1.558837033	-0.564452470
H	-0.023510721	-1.163167820	2.672265049
H	-1.832863185	-1.341190171	1.105579340
H	-0.029488491	0.859702984	-1.776887513
H	2.006835921	0.219923799	1.815438187
$end

$rem
jobtype                force
exchange               PBE
correlation            PBE
basis                  6-31G
SCF_CONVERGENCE 11
symmetry false
sym_ignore true
$end
--------------------------------------------------------------

             Standard Nuclear Orientation (Angstroms)
    I     Atom           X                Y                Z
 ----------------------------------------------------------------
    1      C       1.1374203880     0.0295765640     1.1875800490
    2      C       0.0879465770    -0.6888589710     1.6724364030
    3      N      -0.9801654940    -0.9065201810     0.8065366320
    4      C      -1.0399108190    -0.4321987510    -0.5340239560
    5      N       0.0043116760     0.3830784750    -0.8735767020
    6      C       1.0892103640     0.6817525360    -0.1005274160
    7      O      -1.9852959470    -0.7033145270    -1.2870483260
    8      O       1.8746015360     1.5588370330    -0.5644524700
    9      H      -0.0235107210    -1.1631678200     2.6722650490
   10      H      -1.8328631850    -1.3411901710     1.1055793400
   11      H      -0.0294884910     0.8597029840    -1.7768875130
   12      H       2.0068359210     0.2199237990     1.8154381870
 ----------------------------------------------------------------

   19    -414.2329016294      5.73e-12  Convergence criterion met
 Total energy in the final basis set =     -414.2329016294

                    Orbital Energies (a.u.)
 --------------------------------------------------------------

 Alpha MOs
 -- Occupied --
-18.7624 -18.7450 -14.0779 -14.0641 -10.0520 -10.0120  -9.9880  -9.9231
 -1.0053  -0.9609  -0.9068  -0.8637  -0.7369  -0.6421  -0.6232  -0.5533
 -0.5182  -0.4863  -0.4412  -0.4274  -0.3957  -0.3721  -0.3601  -0.3539
 -0.3337  -0.2449  -0.2446  -0.2206  -0.2082

          Ground-State Mulliken Net Atomic Charges

     Atom                 Charge (a.u.)
  ----------------------------------------
      1 C                    -0.198287
      2 C                     0.147288
      3 N                    -0.666713
      4 C                     0.635377
      5 N                    -0.655601
      6 C                     0.468570
      7 O                    -0.385899
      8 O                    -0.429273
      9 H                     0.198762
     10 H                     0.348241
     11 H                     0.363629
     12 H                     0.173905
  ----------------------------------------
  Sum of atomic charges =     0.000000

                    Cartesian Multipole Moments
 -----------------------------------------------------------------
    Charge (ESU x 10^10)
                -0.0000
    Dipole Moment (Debye)
         X      -1.1720      Y      -2.1318      Z       3.7713
       Tot       4.4878
    Quadrupole Moments (Debye-Ang)
        XX     -53.3587     XY      -4.9070     YY     -48.0216
        XZ      -3.4763     YZ      -4.8185     ZZ     -39.2225

 Total job time:  3.58s(wall), 103.88s(cpu)
        *  Thank you very much for using Q-Chem.  Have a nice day.  *
