 Q-Chem 5.2, Q-Chem, Inc., Pleasanton, CA (2019)
 Q-Chem 5.2.0 for Intel X86 EM64T Linux

User input:
--------------------------------------------------------------
$molecule
0 1
C	0.04407691	0.26556017	-0.53283778
O	-0.09021251	-0.15458396	0.61150002
H	-0.74027901	0.89213691	-1.03658371
H	0.84304493	0.08303257	-1.15034609
$end

$rem
jobtype                force
exchange               HF
correlation            mp2
basis                  aug-cc-pVTZ
SCF_CONVERGENCE 11
symmetry false
sym_ignore true
$end
--------------------------------------------------------------

             Standard Nuclear Orientation (Angstroms)
    I     Atom           X                Y                Z
 ----------------------------------------------------------------
    1      C       0.0440769100     0.2655601700    -0.5328377800
    2      O      -0.0902125100    -0.1545839600     0.6115000200
    3      H      -0.7402790100     0.8921369100    -1.0365837100
    4      H       0.8430449300     0.0830325700    -1.1503460900
 ----------------------------------------------------------------

   18    -113.9068319663      6.77e-12  Convergence criterion met
 Total energy in the final basis set =     -113.9068319663
        MP2         total energy =                  -114.31130393 au

                    Orbital Energies (a.u.)
 --------------------------------------------------------------

 Alpha MOs
 -- Occupied --
-20.5815 -11.3419  -1.3937  -0.8913  -0.6925  -0.6511  -0.5292  -0.4479

          Ground-State Mulliken Net Atomic Charges

     Atom                 Charge (a.u.)
  ----------------------------------------
      1 C                    -0.538432
      2 O                    -0.406703
      3 H                     0.413238
      4 H                     0.531897
  ----------------------------------------
  Sum of atomic charges =     0.000000

                    Cartesian Multipole Moments
 -----------------------------------------------------------------
    Charge (ESU x 10^10)
                 0.0000
    Dipole Moment (Debye)
         X       0.3364      Y       0.8033      Z      -2.3221
       Tot       2.4801
    Quadrupole Moments (Debye-Ang)
        XX     -11.8578     XY       0.0781     YY     -11.7689
        XZ      -0.0494     YZ      -0.0479     ZZ     -11.9089

 Total job time:  21.11s(wall), 383.13s(cpu)
        *  Thank you very much for using Q-Chem.  Have a nice day.  *
