 Q-Chem 5.4, Q-Chem, Inc., Pleasanton, CA (2021)
 Q-Chem 5.4.2 for Intel X86 EM64T Linux

User input:
--------------------------------------------------------------
$molecule
0 1
C	0.05651673	-0.47584222	0.30651935
O	-0.12584381	0.59040784	-0.25998207
H	-0.26301118	-1.42278952	0.02327571
H	0.68578566	-0.51403096	1.39658035
$end

$rem
jobtype                force
exchange               HF
correlation            mp2
basis                  aug-cc-pVTZ
SCF_CONVERGENCE 11
symmetry false
sym_ignore true
$end
--------------------------------------------------------------

             Standard Nuclear Orientation (Angstroms)
    I     Atom           X                Y                Z
 ----------------------------------------------------------------
    1      C       0.0565167300    -0.4758422200     0.3065193500
    2      O      -0.1258438100     0.5904078400    -0.2599820700
    3      H      -0.2630111800    -1.4227895200     0.0232757100
    4      H       0.6857856600    -0.5140309600     1.3965803500
 ----------------------------------------------------------------

   18    -113.8955595964      7.88e-12  Convergence criterion met
 Total energy in the final basis set =     -113.8955595964
        MP2         total energy =                  -114.30199105 au

                    Orbital Energies (a.u.)
 --------------------------------------------------------------

 Alpha MOs
 -- Occupied --
-20.5871 -11.3589  -1.4013  -0.8761  -0.6814  -0.6461  -0.5362  -0.4390

          Ground-State Mulliken Net Atomic Charges

     Atom                 Charge (a.u.)
  ----------------------------------------
      1 C                    -0.428579
      2 O                    -0.380472
      3 H                     0.540307
      4 H                     0.268744
  ----------------------------------------
  Sum of atomic charges =     0.000000

                    Cartesian Multipole Moments
 -----------------------------------------------------------------
    Charge (ESU x 10^10)
                 0.0000
    Dipole Moment (Debye)
         X       0.2157      Y      -2.1298      Z       0.9016
       Tot       2.3228
    Quadrupole Moments (Debye-Ang)
        XX     -12.0488     XY       0.2306     YY     -11.8639
        XZ      -0.2039     YZ       0.1468     ZZ     -12.2282

 Total job time:  20.16s(wall), 370.97s(cpu)
        *  Thank you very much for using Q-Chem.  Have a nice day.  *
