 Q-Chem 5.2, Q-Chem, Inc., Pleasanton, CA (2019)
 Q-Chem 5.2.0 for Intel X86 EM64T Linux

User input:
--------------------------------------------------------------
$molecule
0 1
C -0.087515 0.668873 0.067435
O 0.002857 -0.540236 0.036406
H -0.615725 1.188770 0.880649
H 0.354668 1.301644 -0.716392
$end

$rem
jobtype                force
exchange               HF
correlation            mp2
basis                  aug-cc-pVTZ
SCF_CONVERGENCE 11
symmetry false
sym_ignore true
$end
--------------------------------------------------------------

             Standard Nuclear Orientation (Angstroms)
    I     Atom           X                Y                Z
 ----------------------------------------------------------------
    1      C      -0.0875150000     0.6688730000     0.0674350000
    2      O       0.0028570000    -0.5402360000     0.0364060000
    3      H      -0.6157250000     1.1887700000     0.8806490000
    4      H       0.3546680000     1.3016440000    -0.7163920000
 ----------------------------------------------------------------

   15    -113.9131459060      6.46e-12  Convergence criterion met
 Total energy in the final basis set =     -113.9131459060
        MP2         total energy =                  -114.31641018 au

                    Orbital Energies (a.u.)
 --------------------------------------------------------------

 Alpha MOs
 -- Occupied --
-20.5793 -11.3435  -1.4023  -0.8729  -0.6945  -0.6506  -0.5343  -0.4449

          Ground-State Mulliken Net Atomic Charges

     Atom                 Charge (a.u.)
  ----------------------------------------
      1 C                    -0.509640
      2 O                    -0.397249
      3 H                     0.453415
      4 H                     0.453474
  ----------------------------------------
  Sum of atomic charges =     0.000000

                    Cartesian Multipole Moments
 -----------------------------------------------------------------
    Charge (ESU x 10^10)
                -0.0000
    Dipole Moment (Debye)
         X      -0.1787      Y       2.3910      Z       0.0613
       Tot       2.3984
    Quadrupole Moments (Debye-Ang)
        XX     -11.7832     XY      -0.0985     YY     -11.6723
        XZ      -0.0465     YZ       0.1204     ZZ     -11.7550

 Total job time:  20.53s(wall), 365.13s(cpu)
        *  Thank you very much for using Q-Chem.  Have a nice day.  *
