 Q-Chem 5.4, Q-Chem, Inc., Pleasanton, CA (2021)
 Q-Chem 5.4.2 for Intel X86 EM64T Linux

User input:
--------------------------------------------------------------
$molecule
0 1
C	1.21238773	0.11934573	1.12336494
C	0.27795805	-0.77559402	1.55254456
N	-0.83301873	-1.02272272	0.79391547
C	-1.08935878	-0.41897305	-0.51446736
N	-0.02818888	0.34494393	-0.94313243
C	1.05062057	0.75541527	-0.11270664
O	-2.15791876	-0.75738185	-1.13702602
O	1.78198174	1.70059753	-0.48614264
H	0.26958048	-1.32980550	2.46354171
H	-1.49480009	-1.73094623	1.05184644
H	-0.17231383	0.88010939	-1.80073333
H	2.10117797	0.48247751	1.73209796
$end

$rem
jobtype                force
exchange               HF
correlation            PBE
basis                  6-31G
SCF_CONVERGENCE 11
symmetry false
sym_ignore true
$end
--------------------------------------------------------------

             Standard Nuclear Orientation (Angstroms)
    I     Atom           X                Y                Z
 ----------------------------------------------------------------
    1      C       1.2123877300     0.1193457300     1.1233649400
    2      C       0.2779580500    -0.7755940200     1.5525445600
    3      N      -0.8330187300    -1.0227227200     0.7939154700
    4      C      -1.0893587800    -0.4189730500    -0.5144673600
    5      N      -0.0281888800     0.3449439300    -0.9431324300
    6      C       1.0506205700     0.7554152700    -0.1127066400
    7      O      -2.1579187600    -0.7573818500    -1.1370260200
    8      O       1.7819817400     1.7005975300    -0.4861426400
    9      H       0.2695804800    -1.3298055000     2.4635417100
   10      H      -1.4948000900    -1.7309462300     1.0518464400
   11      H      -0.1723138300     0.8801093900    -1.8007333300
   12      H       2.1011779700     0.4824775100     1.7320979600
 ----------------------------------------------------------------

   23    -414.2220082212      4.74e-12  Convergence criterion met
 Total energy in the final basis set =     -414.2220082212

                    Orbital Energies (a.u.)
 --------------------------------------------------------------

 Alpha MOs
 -- Occupied --
-20.5982 -20.5807 -15.6887 -15.6867 -11.4870 -11.4289 -11.3871 -11.2973
 -1.4785  -1.4457  -1.3611  -1.3081  -1.1441  -0.9928  -0.9557  -0.8566
 -0.8141  -0.7758  -0.7230  -0.7071  -0.6807  -0.6499  -0.6312  -0.6058
 -0.5734  -0.5189  -0.4926  -0.4754  -0.4042

          Ground-State Mulliken Net Atomic Charges

     Atom                 Charge (a.u.)
  ----------------------------------------
      1 C                    -0.418562
      2 C                     0.226659
      3 N                    -1.044408
      4 C                     1.117739
      5 N                    -1.038998
      6 C                     0.803873
      7 O                    -0.618976
      8 O                    -0.612369
      9 H                     0.316158
     10 H                     0.460369
     11 H                     0.476976
     12 H                     0.331538
  ----------------------------------------
  Sum of atomic charges =     0.000000

                    Cartesian Multipole Moments
 -----------------------------------------------------------------
    Charge (ESU x 10^10)
                -0.0000
    Dipole Moment (Debye)
         X      -0.1159      Y      -2.9218      Z       4.2578
       Tot       5.1652
    Quadrupole Moments (Debye-Ang)
        XX     -58.8228     XY      -6.7738     YY     -48.1796
        XZ      -2.1302     YZ      -6.4111     ZZ     -39.3261

 Total job time:  3.38s(wall), 104.80s(cpu)
        *  Thank you very much for using Q-Chem.  Have a nice day.  *
