 Q-Chem 5.2, Q-Chem, Inc., Pleasanton, CA (2019)
 Q-Chem 5.2.0 for Intel X86 EM64T Linux

User input:
--------------------------------------------------------------
$molecule
0 1
C	51523.29806576	-0.43634391	0.32120574
O	-0.12647105	0.59626297	-0.25816759
H	-0.26271385	-1.77846065	0.05462642
H	0.71605369	-0.53388479	1.38725590
$end

$rem
jobtype                force
exchange               HF
correlation            mp2
basis                  aug-cc-pVTZ
SCF_CONVERGENCE 11
symmetry false
sym_ignore true
$end
--------------------------------------------------------------

             Standard Nuclear Orientation (Angstroms)
    I     Atom           X                Y                Z
 ----------------------------------------------------------------
    1      C   51523.2980657600    -0.4363439100     0.3212057400
    2      O      -0.1264710500     0.5962629700    -0.2581675900
    3      H      -0.2627138500    -1.7784606500     0.0546264200
    4      H       0.7160536900    -0.5338847900     1.3872559000
 ----------------------------------------------------------------

   25    -113.2240472206      1.52e-12  Convergence criterion met
 Total energy in the final basis set =     -113.2240472206
        MP2         total energy =                  -113.55129824 au

                    Orbital Energies (a.u.)
 --------------------------------------------------------------

 Alpha MOs
 -- Occupied --
-20.6726 -11.3659  -1.2308  -0.7260  -0.5479  -0.5458  -0.4091  -0.3582

          Ground-State Mulliken Net Atomic Charges

     Atom                 Charge (a.u.)
  ----------------------------------------
      1 C                    -0.000000
      2 O                    -0.267459
      3 H                     0.134951
      4 H                     0.132509
  ----------------------------------------
  Sum of atomic charges =     0.000000

                    Cartesian Multipole Moments
 -----------------------------------------------------------------
    Charge (ESU x 10^10)
                 0.0000
    Dipole Moment (Debye)
         X       0.3974      Y      -2.0153      Z       1.1117
       Tot       2.3356
    Quadrupole Moments (Debye-Ang)
        XX     -13.5151     XY       0.2440     YY     -14.3889
        XZ       1.4217     YZ      -0.7716     ZZ     -11.7757

 Total job time:  12.63s(wall), 302.69s(cpu)
        *  Thank you very much for using Q-Chem.  Have a nice day.  *
